# vtk DataFile Version 3.0
Original file: cloud_wall
ASCII
DATASET UNSTRUCTURED_GRID
POINTS 300 float
0 0 4.5
0 0 5.5
0 1 4.5
0 1 5.5
0 2 4.5
0 2 5.5
0 3 4.5
0 3 5.5
0 4 4.5
0 4 5.5
0 5 4.5
0 5 5.5
0 6 4.5
0 6 5.5
0 7 4.5
0 7 5.5
0 8 4.5
0 8 5.5
0 9 4.5
0 9 5.5
1 0 4.5
1 0 5.5
1 1 4.5
1 1 5.5
1 2 4.5
1 2 5.5
1 3 4.5
1 3 5.5
1 4 4.5
1 4 5.5
1 5 4.5
1 5 5.5
1 6 4.5
1 6 5.5
1 7 4.5
1 7 5.5
1 8 4.5
1 8 5.5
1 9 4.5
1 9 5.5
2 0 4.5
2 0 5.5
2 1 4.5
2 1 5.5
2 2 4.5
2 2 5.5
2 3 4.5
2 3 5.5
2 4 4.5
2 4 5.5
2 5 4.5
2 5 5.5
2 6 4.5
2 6 5.5
2 7 4.5
2 7 5.5
2 8 4.5
2 8 5.5
2 9 4.5
2 9 5.5
3 0 4.5
3 0 5.5
3 1 4.5
3 1 5.5
3 2 4.5
3 2 5.5
3 3 4.5
3 3 5.5
3 4 4.5
3 4 5.5
3 5 4.5
3 5 5.5
3 6 4.5
3 6 5.5
3 7 4.5
3 7 5.5
3 8 4.5
3 8 5.5
3 9 4.5
3 9 5.5
4 0 4.5
4 0 5.5
4 1 4.5
4 1 5.5
4 2 4.5
4 2 5.5
4 3 4.5
4 3 5.5
4 4 4.5
4 4 5.5
4 5 4.5
4 5 5.5
4 6 4.5
4 6 5.5
4 7 4.5
4 7 5.5
4 8 4.5
4 8 5.5
4 9 4.5
4 9 5.5
5 0 4.5
5 0 5.5
5 1 4.5
5 1 5.5
5 2 4.5
5 2 5.5
5 3 4.5
5 3 5.5
5 4 4.5
5 4 5.5
5 5 4.5
5 5 5.5
5 6 4.5
5 6 5.5
5 7 4.5
5 7 5.5
5 8 4.5
5 8 5.5
5 9 4.5
5 9 5.5
6 0 4.5
6 0 5.5
6 1 4.5
6 1 5.5
6 2 4.5
6 2 5.5
6 3 4.5
6 3 5.5
6 4 4.5
6 4 5.5
6 5 4.5
6 5 5.5
6 6 4.5
6 6 5.5
6 7 4.5
6 7 5.5
6 8 4.5
6 8 5.5
6 9 4.5
6 9 5.5
7 0 4.5
7 0 5.5
7 1 4.5
7 1 5.5
7 2 4.5
7 2 5.5
7 3 4.5
7 3 5.5
7 4 4.5
7 4 5.5
7 5 4.5
7 5 5.5
7 6 4.5
7 6 5.5
7 7 4.5
7 7 5.5
7 8 4.5
7 8 5.5
7 9 4.5
7 9 5.5
8 0 4.5
8 0 5.5
8 1 4.5
8 1 5.5
8 2 4.5
8 2 5.5
8 3 4.5
8 3 5.5
8 4 4.5
8 4 5.5
8 5 4.5
8 5 5.5
8 6 4.5
8 6 5.5
8 7 4.5
8 7 5.5
8 8 4.5
8 8 5.5
8 9 4.5
8 9 5.5
9 0 4.5
9 0 5.5
9 1 4.5
9 1 5.5
9 2 4.5
9 2 5.5
9 3 4.5
9 3 5.5
9 4 4.5
9 4 5.5
9 5 4.5
9 5 5.5
9 6 4.5
9 6 5.5
9 7 4.5
9 7 5.5
9 8 4.5
9 8 5.5
9 9 4.5
9 9 5.5
9.28495 2.13839 8.880190000000001
4.99281 4.17459 9.83905
4.91265 6.89408 2.39989
4.43647 3.68895 8.860860000000001
0.659075 7.07271 0.179131
7.791 3.40021 0.969703
1.18008 3.63874 7.28751
8.515219999999999 5.24681 6.37702
4.24226 9.60726 3.16084
8.43745 8.23344 9.2883
8.48509 8.849880000000001 9.43407
2.81127 8.9903 0.00909212
6.38283 6.20858 9.92482
4.59962 5.7925 7.52571
7.03797 7.09336 8.15957
6.68103 8.04734 7.95661
2.531 8.471450000000001 1.6209
6.71915 8.79876 9.59581
4.96758 0.0381298 0.827927
9.22955 1.04572 0.84722
2.3224 2.57084 8.07306
1.94283 3.17375 3.92051
2.34735 1.91295 1.29127
3.33928 3.30688 0.892089
1.19738 4.40402 8.708349999999999
7.44541 4.94803 8.282109999999999
5.93272 1.18886 1.56518
8.50709 8.703430000000001 1.24939
5.54016 3.38865 8.61698
9.47644 0.573085 3.05941
9.39695 4.46542 1.84205
3.52268 5.60212 0.333999
3.69009 9.40954 6.10446
3.96836 6.15307 7.57803
2.02535 0.0418407 3.21642
2.97488 8.79711 8.332420000000001
2.4122 1.79458 3.04173
9.723549999999999 3.67773 1.52435
8.552160000000001 6.1623 1.53201
4.98973 2.41459 9.84381
8.8901 5.9006 1.97649
9.099320000000001 2.23783 1.42554
6.70722 8.217689999999999 1.21953
6.83768 0.8450800000000001 3.25165
0.222115 3.07945 0.51825
0.503918 9.349320000000001 6.25278
0.803159 8.701700000000001 9.462109999999999
4.88636 5.00147 9.65639
1.62258 0.767285 9.635960000000001
2.70143 3.01111 7.74859
4.41574 5.31824 0.538729
1.64724 5.18097 3.59205
2.33672 3.21408 6.6081
7.46603 1.53668 9.09844
3.61269 8.44556 6.99789
6.95465 6.83045 9.31002
5.91831 9.01549 3.4626
6.56503 8.42229 3.27105
4.50822 9.597530000000001 3.47025
4.17357 5.27384 7.34774
7.70968 6.5292 3.54779
4.7977 4.94239 6.24947
9.240159999999999 9.36994 6.71263
7.36888 8.759219999999999 0.52403
9.92895 5.87551 6.21586
3.86308 6.71601 9.69083
8.90048 0.298719 0.573852
6.58753 6.67768 1.83984
8.672000000000001 0.367497 2.21864
3.44519 3.30359 6.52249
7.24717 3.25113 3.41567
9.534470000000001 5.81336 1.79208
1.01722 6.42534 0.715
3.58808 4.92392 7.00979
1.21399 3.56951 6.34505
3.50336 0.9427219999999999 2.76989
9.454750000000001 6.06299 0.659023
3.44464 4.03075 6.20179
0.949331 5.40183 8.51385
6.41118 2.62135 2.31132
3.58837 9.78355 7.04966
9.226699999999999 3.19593 2.10384
1.83092 2.35627 3.93061
4.97203 4.92287 1.8049
7.4097 4.757 8.603999999999999
0.746575 7.69038 0.89134
8.54862 6.59135 2.18888
2.18747 4.82994 0.761718
5.71622 2.51116 6.85522
6.95554 1.83187 8.31157
7.31818 6.60081 2.63208
0.744495 2.73429 9.86022
5.1573 8.709619999999999 2.53418
2.40385 1.54057 1.9297
3.42609 2.25856 2.28437
6.66173 3.70851 9.700519999999999
7.88966 1.4343 8.912229999999999
3.91118 5.22253 6.29642
9.17618 3.98313 9.821580000000001
4.95424 5.93521 1.3652
POINT_DATA 300
SCALARS charge float 1
LOOKUP_TABLE default
1
-1
1
-1
1
-1
1
-1
1
-1
1
-1
1
-1
1
-1
1
-1
1
-1
1
-1
1
-1
1
-1
1
-1
1
-1
1
-1
1
-1
1
-1
1
-1
1
-1
1
-1
1
-1
1
-1
1
-1
1
-1
1
-1
1
-1
1
-1
1
-1
1
-1
1
-1
1
-1
1
-1
1
-1
1
-1
1
-1
1
-1
1
-1
1
-1
1
-1
1
-1
1
-1
1
-1
1
-1
1
-1
1
-1
1
-1
1
-1
1
-1
1
-1
1
-1
1
-1
1
-1
1
-1
1
-1
1
-1
1
-1
1
-1
1
-1
1
-1
1
-1
1
-1
1
-1
1
-1
1
-1
1
-1
1
-1
1
-1
1
-1
1
-1
1
-1
1
-1
1
-1
1
-1
1
-1
1
-1
1
-1
1
-1
1
-1
1
-1
1
-1
1
-1
1
-1
1
-1
1
-1
1
-1
1
-1
1
-1
1
-1
1
-1
1
-1
1
-1
1
-1
1
-1
1
-1
1
-1
1
-1
1
-1
1
-1
1
-1
-1
1
-1
1
-1
1
-1
1
-1
1
-1
1
-1
1
-1
1
-1
1
-1
1
-1
1
-1
1
-1
1
-1
1
-1
1
-1
1
-1
1
-1
1
-1
1
-1
1
-1
1
-1
1
-1
1
-1
1
-1
1
-1
1
-1
1
-1
1
-1
1
-1
1
-1
1
-1
1
-1
1
-1
1
-1
1
-1
1
-1
1
-1
1
-1
1
-1
1
-1
1
-1
1
-1
1
-1
1
-1
1
-1
1
-1
1
-1
1
-1
1
-1
1
